# vtk DataFile Version 1.0
2D Simulation C++
ASCII
DATASET UNSTRUCTURED_GRID
FIELD FieldData 1
NODES 1 2 int
16 18

POINTS 16 double
0.0 0.0 0.0
0.333333333333 0.0 0.0
0.666666666667 0.0 0.0
1.0 0.0 0.0
0.0 0.333333333333 0.0
0.333333333333 0.333333333333 0.0
0.666666666667 0.333333333333 0.0
1.0 0.333333333333 0.0
0.0 0.666666666667 0.0
0.333333333333 0.666666666667 0.0
0.666666666667 0.666666666667 0.0
1.0 0.666666666667 0.0
0.0 1.0 0.0
0.333333333333 1.0 0.0
0.666666666667 1.0 0.0
1.0 1.0 0.0

CELLS 18 72
3 0 1 5
3 1 2 6
3 2 3 7
3 4 5 9
3 5 6 10
3 6 7 11
3 8 9 13
3 9 10 14
3 10 11 15
3 0 5 4
3 1 6 5
3 2 7 6
3 4 9 8
3 5 10 9
3 6 11 10
3 8 13 12
3 9 14 13
3 10 15 14

CELL_TYPES 18
5 5 5 5 5 5 5 5 5 5 5 5 5 5 5 5 5 5 

POINT_DATA 16
SCALARS Temperature_numeric double
LOOKUP_TABLE default
0.0
0.333333333333
0.666666666667
1.0
0.333333333333
0.611111111111
0.888888888889
1.11111111111
0.666666666667
0.888888888889
1.16666666667
1.44444444444
1.0
1.11111111111
1.44444444444
2.0

